+ 0 /NodeList/0/DeviceList/0/$ns3::PointToPointNetDevice/TxQueue/Enqueue ns3::PppHeader (Point-to-Point Protocol: IP (0x0021)) ns3::Ipv4Header (tos 0x0 DSCP Default ECN Not-ECT ttl 64 id 0 protocol 6 offset (bytes) 0 flags [none] length: 56 10.1.3.1 > 10.1.2.2) ns3::TcpHeader (49153 > 4000 [SYN] Seq=0 Ack=0 Win=32768 ns3::TcpOptionWinScale(2) ns3::TcpOptionTS(0;0) ns3::TcpOptionEnd(EOL))
- 0 /NodeList/0/DeviceList/0/$ns3::PointToPointNetDevice/TxQueue/Dequeue ns3::PppHeader (Point-to-Point Protocol: IP (0x0021)) ns3::Ipv4Header (tos 0x0 DSCP Default ECN Not-ECT ttl 64 id 0 protocol 6 offset (bytes) 0 flags [none] length: 56 10.1.3.1 > 10.1.2.2) ns3::TcpHeader (49153 > 4000 [SYN] Seq=0 Ack=0 Win=32768 ns3::TcpOptionWinScale(2) ns3::TcpOptionTS(0;0) ns3::TcpOptionEnd(EOL))
r 0.00154667 /NodeList/1/DeviceList/0/$ns3::PointToPointNetDevice/MacRx ns3::PppHeader (Point-to-Point Protocol: IP (0x0021)) ns3::Ipv4Header (tos 0x0 DSCP Default ECN Not-ECT ttl 64 id 0 protocol 6 offset (bytes) 0 flags [none] length: 56 10.1.3.1 > 10.1.2.2) ns3::TcpHeader (49153 > 4000 [SYN] Seq=0 Ack=0 Win=32768 ns3::TcpOptionWinScale(2) ns3::TcpOptionTS(0;0) ns3::TcpOptionEnd(EOL))
+ 0.00154667 /NodeList/1/DeviceList/1/$ns3::PointToPointNetDevice/TxQueue/Enqueue ns3::PppHeader (Point-to-Point Protocol: IP (0x0021)) ns3::Ipv4Header (tos 0x0 DSCP Default ECN Not-ECT ttl 63 id 0 protocol 6 offset (bytes) 0 flags [none] length: 56 10.1.3.1 > 10.1.2.2) ns3::TcpHeader (49153 > 4000 [SYN] Seq=0 Ack=0 Win=32768 ns3::TcpOptionWinScale(2) ns3::TcpOptionTS(0;0) ns3::TcpOptionEnd(EOL))
- 0.00154667 /NodeList/1/DeviceList/1/$ns3::PointToPointNetDevice/TxQueue/Dequeue ns3::PppHeader (Point-to-Point Protocol: IP (0x0021)) ns3::Ipv4Header (tos 0x0 DSCP Default ECN Not-ECT ttl 63 id 0 protocol 6 offset (bytes) 0 flags [none] length: 56 10.1.3.1 > 10.1.2.2) ns3::TcpHeader (49153 > 4000 [SYN] Seq=0 Ack=0 Win=32768 ns3::TcpOptionWinScale(2) ns3::TcpOptionTS(0;0) ns3::TcpOptionEnd(EOL))
r 0.00309333 /NodeList/2/DeviceList/0/$ns3::PointToPointNetDevice/MacRx ns3::PppHeader (Point-to-Point Protocol: IP (0x0021)) ns3::Ipv4Header (tos 0x0 DSCP Default ECN Not-ECT ttl 63 id 0 protocol 6 offset (bytes) 0 flags [none] length: 56 10.1.3.1 > 10.1.2.2) ns3::TcpHeader (49153 > 4000 [SYN] Seq=0 Ack=0 Win=32768 ns3::TcpOptionWinScale(2) ns3::TcpOptionTS(0;0) ns3::TcpOptionEnd(EOL))
+ 0.00309333 /NodeList/2/DeviceList/0/$ns3::PointToPointNetDevice/TxQueue/Enqueue ns3::PppHeader (Point-to-Point Protocol: IP (0x0021)) ns3::Ipv4Header (tos 0x0 DSCP Default ECN Not-ECT ttl 64 id 0 protocol 6 offset (bytes) 0 flags [none] length: 56 10.1.2.2 > 10.1.3.1) ns3::TcpHeader (4000 > 49153 [SYN|ACK] Seq=0 Ack=1 Win=32768 ns3::TcpOptionWinScale(2) ns3::TcpOptionTS(3;0) ns3::TcpOptionEnd(EOL))
- 0.00309333 /NodeList/2/DeviceList/0/$ns3::PointToPointNetDevice/TxQueue/Dequeue ns3::PppHeader (Point-to-Point Protocol: IP (0x0021)) ns3::Ipv4Header (tos 0x0 DSCP Default ECN Not-ECT ttl 64 id 0 protocol 6 offset (bytes) 0 flags [none] length: 56 10.1.2.2 > 10.1.3.1) ns3::TcpHeader (4000 > 49153 [SYN|ACK] Seq=0 Ack=1 Win=32768 ns3::TcpOptionWinScale(2) ns3::TcpOptionTS(3;0) ns3::TcpOptionEnd(EOL))
r 0.0172535 /NodeList/1/DeviceList/1/$ns3::PointToPointNetDevice/MacRx ns3::PppHeader (Point-to-Point Protocol: IP (0x0021)) ns3::Ipv4Header (tos 0x0 DSCP Default ECN Not-ECT ttl 64 id 0 protocol 6 offset (bytes) 0 flags [none] length: 56 10.1.2.2 > 10.1.3.1) ns3::TcpHeader (4000 > 49153 [SYN|ACK] Seq=0 Ack=1 Win=32768 ns3::TcpOptionWinScale(2) ns3::TcpOptionTS(3;0) ns3::TcpOptionEnd(EOL))
+ 0.0172535 /NodeList/1/DeviceList/0/$ns3::PointToPointNetDevice/TxQueue/Enqueue ns3::PppHeader (Point-to-Point Protocol: IP (0x0021)) ns3::Ipv4Header (tos 0x0 DSCP Default ECN Not-ECT ttl 63 id 0 protocol 6 offset (bytes) 0 flags [none] length: 56 10.1.2.2 > 10.1.3.1) ns3::TcpHeader (4000 > 49153 [SYN|ACK] Seq=0 Ack=1 Win=32768 ns3::TcpOptionWinScale(2) ns3::TcpOptionTS(3;0) ns3::TcpOptionEnd(EOL))
- 0.0172535 /NodeList/1/DeviceList/0/$ns3::PointToPointNetDevice/TxQueue/Dequeue ns3::PppHeader (Point-to-Point Protocol: IP (0x0021)) ns3::Ipv4Header (tos 0x0 DSCP Default ECN Not-ECT ttl 63 id 0 protocol 6 offset (bytes) 0 flags [none] length: 56 10.1.2.2 > 10.1.3.1) ns3::TcpHeader (4000 > 49153 [SYN|ACK] Seq=0 Ack=1 Win=32768 ns3::TcpOptionWinScale(2) ns3::TcpOptionTS(3;0) ns3::TcpOptionEnd(EOL))
r 0.0314136 /NodeList/0/DeviceList/0/$ns3::PointToPointNetDevice/MacRx ns3::PppHeader (Point-to-Point Protocol: IP (0x0021)) ns3::Ipv4Header (tos 0x0 DSCP Default ECN Not-ECT ttl 63 id 0 protocol 6 offset (bytes) 0 flags [none] length: 56 10.1.2.2 > 10.1.3.1) ns3::TcpHeader (4000 > 49153 [SYN|ACK] Seq=0 Ack=1 Win=32768 ns3::TcpOptionWinScale(2) ns3::TcpOptionTS(3;0) ns3::TcpOptionEnd(EOL))
+ 0.0314136 /NodeList/0/DeviceList/0/$ns3::PointToPointNetDevice/TxQueue/Enqueue ns3::PppHeader (Point-to-Point Protocol: IP (0x0021)) ns3::Ipv4Header (tos 0x0 DSCP Default ECN Not-ECT ttl 64 id 1 protocol 6 offset (bytes) 0 flags [none] length: 52 10.1.3.1 > 10.1.2.2) ns3::TcpHeader (49153 > 4000 [ACK] Seq=1 Ack=1 Win=32768 ns3::TcpOptionTS(31;3) ns3::TcpOptionEnd(EOL))
- 0.0314136 /NodeList/0/DeviceList/0/$ns3::PointToPointNetDevice/TxQueue/Dequeue ns3::PppHeader (Point-to-Point Protocol: IP (0x0021)) ns3::Ipv4Header (tos 0x0 DSCP Default ECN Not-ECT ttl 64 id 1 protocol 6 offset (bytes) 0 flags [none] length: 52 10.1.3.1 > 10.1.2.2) ns3::TcpHeader (49153 > 4000 [ACK] Seq=1 Ack=1 Win=32768 ns3::TcpOptionTS(31;3) ns3::TcpOptionEnd(EOL))
+ 0.0314136 /NodeList/0/DeviceList/0/$ns3::PointToPointNetDevice/TxQueue/Enqueue ns3::PppHeader (Point-to-Point Protocol: IP (0x0021)) ns3::Ipv4Header (tos 0x0 DSCP Default ECN Not-ECT ttl 64 id 2 protocol 6 offset (bytes) 0 flags [none] length: 588 10.1.3.1 > 10.1.2.2) ns3::TcpHeader (49153 > 4000 [ACK] Seq=1 Ack=1 Win=32768 ns3::TcpOptionTS(31;3) ns3::TcpOptionEnd(EOL)) Payload Fragment [0:536]
- 0.0328536 /NodeList/0/DeviceList/0/$ns3::PointToPointNetDevice/TxQueue/Dequeue ns3::PppHeader (Point-to-Point Protocol: IP (0x0021)) ns3::Ipv4Header (tos 0x0 DSCP Default ECN Not-ECT ttl 64 id 2 protocol 6 offset (bytes) 0 flags [none] length: 588 10.1.3.1 > 10.1.2.2) ns3::TcpHeader (49153 > 4000 [ACK] Seq=1 Ack=1 Win=32768 ns3::TcpOptionTS(31;3) ns3::TcpOptionEnd(EOL)) Payload Fragment [0:536]
r 0.0328536 /NodeList/1/DeviceList/0/$ns3::PointToPointNetDevice/MacRx ns3::PppHeader (Point-to-Point Protocol: IP (0x0021)) ns3::Ipv4Header (tos 0x0 DSCP Default ECN Not-ECT ttl 64 id 1 protocol 6 offset (bytes) 0 flags [none] length: 52 10.1.3.1 > 10.1.2.2) ns3::TcpHeader (49153 > 4000 [ACK] Seq=1 Ack=1 Win=32768 ns3::TcpOptionTS(31;3) ns3::TcpOptionEnd(EOL))
+ 0.0328536 /NodeList/1/DeviceList/1/$ns3::PointToPointNetDevice/TxQueue/Enqueue ns3::PppHeader (Point-to-Point Protocol: IP (0x0021)) ns3::Ipv4Header (tos 0x0 DSCP Default ECN Not-ECT ttl 63 id 1 protocol 6 offset (bytes) 0 flags [none] length: 52 10.1.3.1 > 10.1.2.2) ns3::TcpHeader (49153 > 4000 [ACK] Seq=1 Ack=1 Win=32768 ns3::TcpOptionTS(31;3) ns3::TcpOptionEnd(EOL))
- 0.0328536 /NodeList/1/DeviceList/1/$ns3::PointToPointNetDevice/TxQueue/Dequeue ns3::PppHeader (Point-to-Point Protocol: IP (0x0021)) ns3::Ipv4Header (tos 0x0 DSCP Default ECN Not-ECT ttl 63 id 1 protocol 6 offset (bytes) 0 flags [none] length: 52 10.1.3.1 > 10.1.2.2) ns3::TcpHeader (49153 > 4000 [ACK] Seq=1 Ack=1 Win=32768 ns3::TcpOptionTS(31;3) ns3::TcpOptionEnd(EOL))
r 0.0342936 /NodeList/2/DeviceList/0/$ns3::PointToPointNetDevice/MacRx ns3::PppHeader (Point-to-Point Protocol: IP (0x0021)) ns3::Ipv4Header (tos 0x0 DSCP Default ECN Not-ECT ttl 63 id 1 protocol 6 offset (bytes) 0 flags [none] length: 52 10.1.3.1 > 10.1.2.2) ns3::TcpHeader (49153 > 4000 [ACK] Seq=1 Ack=1 Win=32768 ns3::TcpOptionTS(31;3) ns3::TcpOptionEnd(EOL))
r 0.048587 /NodeList/1/DeviceList/0/$ns3::PointToPointNetDevice/MacRx ns3::PppHeader (Point-to-Point Protocol: IP (0x0021)) ns3::Ipv4Header (tos 0x0 DSCP Default ECN Not-ECT ttl 64 id 2 protocol 6 offset (bytes) 0 flags [none] length: 588 10.1.3.1 > 10.1.2.2) ns3::TcpHeader (49153 > 4000 [ACK] Seq=1 Ack=1 Win=32768 ns3::TcpOptionTS(31;3) ns3::TcpOptionEnd(EOL)) Payload Fragment [0:536]
+ 0.048587 /NodeList/1/DeviceList/1/$ns3::PointToPointNetDevice/TxQueue/Enqueue ns3::PppHeader (Point-to-Point Protocol: IP (0x0021)) ns3::Ipv4Header (tos 0x0 DSCP Default ECN Not-ECT ttl 63 id 2 protocol 6 offset (bytes) 0 flags [none] length: 588 10.1.3.1 > 10.1.2.2) ns3::TcpHeader (49153 > 4000 [ACK] Seq=1 Ack=1 Win=32768 ns3::TcpOptionTS(31;3) ns3::TcpOptionEnd(EOL)) Payload Fragment [0:536]
- 0.048587 /NodeList/1/DeviceList/1/$ns3::PointToPointNetDevice/TxQueue/Dequeue ns3::PppHeader (Point-to-Point Protocol: IP (0x0021)) ns3::Ipv4Header (tos 0x0 DSCP Default ECN Not-ECT ttl 63 id 2 protocol 6 offset (bytes) 0 flags [none] length: 588 10.1.3.1 > 10.1.2.2) ns3::TcpHeader (49153 > 4000 [ACK] Seq=1 Ack=1 Win=32768 ns3::TcpOptionTS(31;3) ns3::TcpOptionEnd(EOL)) Payload Fragment [0:536]
r 0.0643203 /NodeList/2/DeviceList/0/$ns3::PointToPointNetDevice/MacRx ns3::PppHeader (Point-to-Point Protocol: IP (0x0021)) ns3::Ipv4Header (tos 0x0 DSCP Default ECN Not-ECT ttl 63 id 2 protocol 6 offset (bytes) 0 flags [none] length: 588 10.1.3.1 > 10.1.2.2) ns3::TcpHeader (49153 > 4000 [ACK] Seq=1 Ack=1 Win=32768 ns3::TcpOptionTS(31;3) ns3::TcpOptionEnd(EOL)) Payload Fragment [0:536]
+ 0.0643203 /NodeList/2/DeviceList/0/$ns3::PointToPointNetDevice/TxQueue/Enqueue ns3::PppHeader (Point-to-Point Protocol: IP (0x0021)) ns3::Ipv4Header (tos 0x0 DSCP Default ECN Not-ECT ttl 64 id 1 protocol 6 offset (bytes) 0 flags [none] length: 52 10.1.2.2 > 10.1.3.1) ns3::TcpHeader (4000 > 49153 [ACK] Seq=1 Ack=537 Win=32768 ns3::TcpOptionTS(64;31) ns3::TcpOptionEnd(EOL))
- 0.0643203 /NodeList/2/DeviceList/0/$ns3::PointToPointNetDevice/TxQueue/Dequeue ns3::PppHeader (Point-to-Point Protocol: IP (0x0021)) ns3::Ipv4Header (tos 0x0 DSCP Default ECN Not-ECT ttl 64 id 1 protocol 6 offset (bytes) 0 flags [none] length: 52 10.1.2.2 > 10.1.3.1) ns3::TcpHeader (4000 > 49153 [ACK] Seq=1 Ack=537 Win=32768 ns3::TcpOptionTS(64;31) ns3::TcpOptionEnd(EOL))
r 0.0775039 /NodeList/1/DeviceList/1/$ns3::PointToPointNetDevice/MacRx ns3::PppHeader (Point-to-Point Protocol: IP (0x0021)) ns3::Ipv4Header (tos 0x0 DSCP Default ECN Not-ECT ttl 64 id 1 protocol 6 offset (bytes) 0 flags [none] length: 52 10.1.2.2 > 10.1.3.1) ns3::TcpHeader (4000 > 49153 [ACK] Seq=1 Ack=537 Win=32768 ns3::TcpOptionTS(64;31) ns3::TcpOptionEnd(EOL))
+ 0.0775039 /NodeList/1/DeviceList/0/$ns3::PointToPointNetDevice/TxQueue/Enqueue ns3::PppHeader (Point-to-Point Protocol: IP (0x0021)) ns3::Ipv4Header (tos 0x0 DSCP Default ECN Not-ECT ttl 63 id 1 protocol 6 offset (bytes) 0 flags [none] length: 52 10.1.2.2 > 10.1.3.1) ns3::TcpHeader (4000 > 49153 [ACK] Seq=1 Ack=537 Win=32768 ns3::TcpOptionTS(64;31) ns3::TcpOptionEnd(EOL))
- 0.0775039 /NodeList/1/DeviceList/0/$ns3::PointToPointNetDevice/TxQueue/Dequeue ns3::PppHeader (Point-to-Point Protocol: IP (0x0021)) ns3::Ipv4Header (tos 0x0 DSCP Default ECN Not-ECT ttl 63 id 1 protocol 6 offset (bytes) 0 flags [none] length: 52 10.1.2.2 > 10.1.3.1) ns3::TcpHeader (4000 > 49153 [ACK] Seq=1 Ack=537 Win=32768 ns3::TcpOptionTS(64;31) ns3::TcpOptionEnd(EOL))
r 0.0906875 /NodeList/0/DeviceList/0/$ns3::PointToPointNetDevice/MacRx ns3::PppHeader (Point-to-Point Protocol: IP (0x0021)) ns3::Ipv4Header (tos 0x0 DSCP Default ECN Not-ECT ttl 63 id 1 protocol 6 offset (bytes) 0 flags [none] length: 52 10.1.2.2 > 10.1.3.1) ns3::TcpHeader (4000 > 49153 [ACK] Seq=1 Ack=537 Win=32768 ns3::TcpOptionTS(64;31) ns3::TcpOptionEnd(EOL))
+ 0.0906875 /NodeList/0/DeviceList/0/$ns3::PointToPointNetDevice/TxQueue/Enqueue ns3::PppHeader (Point-to-Point Protocol: IP (0x0021)) ns3::Ipv4Header (tos 0x0 DSCP Default ECN Not-ECT ttl 64 id 3 protocol 6 offset (bytes) 0 flags [none] length: 588 10.1.3.1 > 10.1.2.2) ns3::TcpHeader (49153 > 4000 [ACK] Seq=537 Ack=1 Win=32768 ns3::TcpOptionTS(90;64) ns3::TcpOptionEnd(EOL)) Payload Fragment [536:1072]
- 0.0906875 /NodeList/0/DeviceList/0/$ns3::PointToPointNetDevice/TxQueue/Dequeue ns3::PppHeader (Point-to-Point Protocol: IP (0x0021)) ns3::Ipv4Header (tos 0x0 DSCP Default ECN Not-ECT ttl 64 id 3 protocol 6 offset (bytes) 0 flags [none] length: 588 10.1.3.1 > 10.1.2.2) ns3::TcpHeader (49153 > 4000 [ACK] Seq=537 Ack=1 Win=32768 ns3::TcpOptionTS(90;64) ns3::TcpOptionEnd(EOL)) Payload Fragment [536:1072]
+ 0.0906875 /NodeList/0/DeviceList/0/$ns3::PointToPointNetDevice/TxQueue/Enqueue ns3::PppHeader (Point-to-Point Protocol: IP (0x0021)) ns3::Ipv4Header (tos 0x0 DSCP Default ECN Not-ECT ttl 64 id 4 protocol 6 offset (bytes) 0 flags [none] length: 588 10.1.3.1 > 10.1.2.2) ns3::TcpHeader (49153 > 4000 [ACK] Seq=1073 Ack=1 Win=32768 ns3::TcpOptionTS(90;64) ns3::TcpOptionEnd(EOL)) Payload Fragment [1072:1608]
- 0.106421 /NodeList/0/DeviceList/0/$ns3::PointToPointNetDevice/TxQueue/Dequeue ns3::PppHeader (Point-to-Point Protocol: IP (0x0021)) ns3::Ipv4Header (tos 0x0 DSCP Default ECN Not-ECT ttl 64 id 4 protocol 6 offset (bytes) 0 flags [none] length: 588 10.1.3.1 > 10.1.2.2) ns3::TcpHeader (49153 > 4000 [ACK] Seq=1073 Ack=1 Win=32768 ns3::TcpOptionTS(90;64) ns3::TcpOptionEnd(EOL)) Payload Fragment [1072:1608]
r 0.106421 /NodeList/1/DeviceList/0/$ns3::PointToPointNetDevice/MacRx ns3::PppHeader (Point-to-Point Protocol: IP (0x0021)) ns3::Ipv4Header (tos 0x0 DSCP Default ECN Not-ECT ttl 64 id 3 protocol 6 offset (bytes) 0 flags [none] length: 588 10.1.3.1 > 10.1.2.2) ns3::TcpHeader (49153 > 4000 [ACK] Seq=537 Ack=1 Win=32768 ns3::TcpOptionTS(90;64) ns3::TcpOptionEnd(EOL)) Payload Fragment [536:1072]
+ 0.106421 /NodeList/1/DeviceList/1/$ns3::PointToPointNetDevice/TxQueue/Enqueue ns3::PppHeader (Point-to-Point Protocol: IP (0x0021)) ns3::Ipv4Header (tos 0x0 DSCP Default ECN Not-ECT ttl 63 id 3 protocol 6 offset (bytes) 0 flags [none] length: 588 10.1.3.1 > 10.1.2.2) ns3::TcpHeader (49153 > 4000 [ACK] Seq=537 Ack=1 Win=32768 ns3::TcpOptionTS(90;64) ns3::TcpOptionEnd(EOL)) Payload Fragment [536:1072]
- 0.106421 /NodeList/1/DeviceList/1/$ns3::PointToPointNetDevice/TxQueue/Dequeue ns3::PppHeader (Point-to-Point Protocol: IP (0x0021)) ns3::Ipv4Header (tos 0x0 DSCP Default ECN Not-ECT ttl 63 id 3 protocol 6 offset (bytes) 0 flags [none] length: 588 10.1.3.1 > 10.1.2.2) ns3::TcpHeader (49153 > 4000 [ACK] Seq=537 Ack=1 Win=32768 ns3::TcpOptionTS(90;64) ns3::TcpOptionEnd(EOL)) Payload Fragment [536:1072]
r 0.122154 /NodeList/1/DeviceList/0/$ns3::PointToPointNetDevice/MacRx ns3::PppHeader (Point-to-Point Protocol: IP (0x0021)) ns3::Ipv4Header (tos 0x0 DSCP Default ECN Not-ECT ttl 64 id 4 protocol 6 offset (bytes) 0 flags [none] length: 588 10.1.3.1 > 10.1.2.2) ns3::TcpHeader (49153 > 4000 [ACK] Seq=1073 Ack=1 Win=32768 ns3::TcpOptionTS(90;64) ns3::TcpOptionEnd(EOL)) Payload Fragment [1072:1608]
+ 0.122154 /NodeList/1/DeviceList/1/$ns3::PointToPointNetDevice/TxQueue/Enqueue ns3::PppHeader (Point-to-Point Protocol: IP (0x0021)) ns3::Ipv4Header (tos 0x0 DSCP Default ECN Not-ECT ttl 63 id 4 protocol 6 offset (bytes) 0 flags [none] length: 588 10.1.3.1 > 10.1.2.2) ns3::TcpHeader (49153 > 4000 [ACK] Seq=1073 Ack=1 Win=32768 ns3::TcpOptionTS(90;64) ns3::TcpOptionEnd(EOL)) Payload Fragment [1072:1608]
- 0.122154 /NodeList/1/DeviceList/1/$ns3::PointToPointNetDevice/TxQueue/Dequeue ns3::PppHeader (Point-to-Point Protocol: IP (0x0021)) ns3::Ipv4Header (tos 0x0 DSCP Default ECN Not-ECT ttl 63 id 4 protocol 6 offset (bytes) 0 flags [none] length: 588 10.1.3.1 > 10.1.2.2) ns3::TcpHeader (49153 > 4000 [ACK] Seq=1073 Ack=1 Win=32768 ns3::TcpOptionTS(90;64) ns3::TcpOptionEnd(EOL)) Payload Fragment [1072:1608]
r 0.122154 /NodeList/2/DeviceList/0/$ns3::PointToPointNetDevice/MacRx ns3::PppHeader (Point-to-Point Protocol: IP (0x0021)) ns3::Ipv4Header (tos 0x0 DSCP Default ECN Not-ECT ttl 63 id 3 protocol 6 offset (bytes) 0 flags [none] length: 588 10.1.3.1 > 10.1.2.2) ns3::TcpHeader (49153 > 4000 [ACK] Seq=537 Ack=1 Win=32768 ns3::TcpOptionTS(90;64) ns3::TcpOptionEnd(EOL)) Payload Fragment [536:1072]
r 0.137887 /NodeList/2/DeviceList/0/$ns3::PointToPointNetDevice/MacRx ns3::PppHeader (Point-to-Point Protocol: IP (0x0021)) ns3::Ipv4Header (tos 0x0 DSCP Default ECN Not-ECT ttl 63 id 4 protocol 6 offset (bytes) 0 flags [none] length: 588 10.1.3.1 > 10.1.2.2) ns3::TcpHeader (49153 > 4000 [ACK] Seq=1073 Ack=1 Win=32768 ns3::TcpOptionTS(90;64) ns3::TcpOptionEnd(EOL)) Payload Fragment [1072:1608]
+ 0.137887 /NodeList/2/DeviceList/0/$ns3::PointToPointNetDevice/TxQueue/Enqueue ns3::PppHeader (Point-to-Point Protocol: IP (0x0021)) ns3::Ipv4Header (tos 0x0 DSCP Default ECN Not-ECT ttl 64 id 2 protocol 6 offset (bytes) 0 flags [none] length: 52 10.1.2.2 > 10.1.3.1) ns3::TcpHeader (4000 > 49153 [ACK] Seq=1 Ack=1609 Win=32768 ns3::TcpOptionTS(137;90) ns3::TcpOptionEnd(EOL))
- 0.137887 /NodeList/2/DeviceList/0/$ns3::PointToPointNetDevice/TxQueue/Dequeue ns3::PppHeader (Point-to-Point Protocol: IP (0x0021)) ns3::Ipv4Header (tos 0x0 DSCP Default ECN Not-ECT ttl 64 id 2 protocol 6 offset (bytes) 0 flags [none] length: 52 10.1.2.2 > 10.1.3.1) ns3::TcpHeader (4000 > 49153 [ACK] Seq=1 Ack=1609 Win=32768 ns3::TcpOptionTS(137;90) ns3::TcpOptionEnd(EOL))
r 0.151071 /NodeList/1/DeviceList/1/$ns3::PointToPointNetDevice/MacRx ns3::PppHeader (Point-to-Point Protocol: IP (0x0021)) ns3::Ipv4Header (tos 0x0 DSCP Default ECN Not-ECT ttl 64 id 2 protocol 6 offset (bytes) 0 flags [none] length: 52 10.1.2.2 > 10.1.3.1) ns3::TcpHeader (4000 > 49153 [ACK] Seq=1 Ack=1609 Win=32768 ns3::TcpOptionTS(137;90) ns3::TcpOptionEnd(EOL))
+ 0.151071 /NodeList/1/DeviceList/0/$ns3::PointToPointNetDevice/TxQueue/Enqueue ns3::PppHeader (Point-to-Point Protocol: IP (0x0021)) ns3::Ipv4Header (tos 0x0 DSCP Default ECN Not-ECT ttl 63 id 2 protocol 6 offset (bytes) 0 flags [none] length: 52 10.1.2.2 > 10.1.3.1) ns3::TcpHeader (4000 > 49153 [ACK] Seq=1 Ack=1609 Win=32768 ns3::TcpOptionTS(137;90) ns3::TcpOptionEnd(EOL))
- 0.151071 /NodeList/1/DeviceList/0/$ns3::PointToPointNetDevice/TxQueue/Dequeue ns3::PppHeader (Point-to-Point Protocol: IP (0x0021)) ns3::Ipv4Header (tos 0x0 DSCP Default ECN Not-ECT ttl 63 id 2 protocol 6 offset (bytes) 0 flags [none] length: 52 10.1.2.2 > 10.1.3.1) ns3::TcpHeader (4000 > 49153 [ACK] Seq=1 Ack=1609 Win=32768 ns3::TcpOptionTS(137;90) ns3::TcpOptionEnd(EOL))
r 0.164255 /NodeList/0/DeviceList/0/$ns3::PointToPointNetDevice/MacRx ns3::PppHeader (Point-to-Point Protocol: IP (0x0021)) ns3::Ipv4Header (tos 0x0 DSCP Default ECN Not-ECT ttl 63 id 2 protocol 6 offset (bytes) 0 flags [none] length: 52 10.1.2.2 > 10.1.3.1) ns3::TcpHeader (4000 > 49153 [ACK] Seq=1 Ack=1609 Win=32768 ns3::TcpOptionTS(137;90) ns3::TcpOptionEnd(EOL))
+ 0.164255 /NodeList/0/DeviceList/0/$ns3::PointToPointNetDevice/TxQueue/Enqueue ns3::PppHeader (Point-to-Point Protocol: IP (0x0021)) ns3::Ipv4Header (tos 0x0 DSCP Default ECN Not-ECT ttl 64 id 5 protocol 6 offset (bytes) 0 flags [none] length: 588 10.1.3.1 > 10.1.2.2) ns3::TcpHeader (49153 > 4000 [ACK] Seq=1609 Ack=1 Win=32768 ns3::TcpOptionTS(164;137) ns3::TcpOptionEnd(EOL)) Payload Fragment [1608:2048] Payload Fragment [0:96]
- 0.164255 /NodeList/0/DeviceList/0/$ns3::PointToPointNetDevice/TxQueue/Dequeue ns3::PppHeader (Point-to-Point Protocol: IP (0x0021)) ns3::Ipv4Header (tos 0x0 DSCP Default ECN Not-ECT ttl 64 id 5 protocol 6 offset (bytes) 0 flags [none] length: 588 10.1.3.1 > 10.1.2.2) ns3::TcpHeader (49153 > 4000 [ACK] Seq=1609 Ack=1 Win=32768 ns3::TcpOptionTS(164;137) ns3::TcpOptionEnd(EOL)) Payload Fragment [1608:2048] Payload Fragment [0:96]
+ 0.164255 /NodeList/0/DeviceList/0/$ns3::PointToPointNetDevice/TxQueue/Enqueue ns3::PppHeader (Point-to-Point Protocol: IP (0x0021)) ns3::Ipv4Header (tos 0x0 DSCP Default ECN Not-ECT ttl 64 id 6 protocol 6 offset (bytes) 0 flags [none] length: 588 10.1.3.1 > 10.1.2.2) ns3::TcpHeader (49153 > 4000 [ACK] Seq=2145 Ack=1 Win=32768 ns3::TcpOptionTS(164;137) ns3::TcpOptionEnd(EOL)) Payload Fragment [96:632]
+ 0.164255 /NodeList/0/DeviceList/0/$ns3::PointToPointNetDevice/TxQueue/Enqueue ns3::PppHeader (Point-to-Point Protocol: IP (0x0021)) ns3::Ipv4Header (tos 0x0 DSCP Default ECN Not-ECT ttl 64 id 7 protocol 6 offset (bytes) 0 flags [none] length: 588 10.1.3.1 > 10.1.2.2) ns3::TcpHeader (49153 > 4000 [ACK] Seq=2681 Ack=1 Win=32768 ns3::TcpOptionTS(164;137) ns3::TcpOptionEnd(EOL)) Payload Fragment [632:1168]
- 0.179988 /NodeList/0/DeviceList/0/$ns3::PointToPointNetDevice/TxQueue/Dequeue ns3::PppHeader (Point-to-Point Protocol: IP (0x0021)) ns3::Ipv4Header (tos 0x0 DSCP Default ECN Not-ECT ttl 64 id 6 protocol 6 offset (bytes) 0 flags [none] length: 588 10.1.3.1 > 10.1.2.2) ns3::TcpHeader (49153 > 4000 [ACK] Seq=2145 Ack=1 Win=32768 ns3::TcpOptionTS(164;137) ns3::TcpOptionEnd(EOL)) Payload Fragment [96:632]
r 0.179988 /NodeList/1/DeviceList/0/$ns3::PointToPointNetDevice/MacRx ns3::PppHeader (Point-to-Point Protocol: IP (0x0021)) ns3::Ipv4Header (tos 0x0 DSCP Default ECN Not-ECT ttl 64 id 5 protocol 6 offset (bytes) 0 flags [none] length: 588 10.1.3.1 > 10.1.2.2) ns3::TcpHeader (49153 > 4000 [ACK] Seq=1609 Ack=1 Win=32768 ns3::TcpOptionTS(164;137) ns3::TcpOptionEnd(EOL)) Payload Fragment [1608:2048] Payload Fragment [0:96]
+ 0.179988 /NodeList/1/DeviceList/1/$ns3::PointToPointNetDevice/TxQueue/Enqueue ns3::PppHeader (Point-to-Point Protocol: IP (0x0021)) ns3::Ipv4Header (tos 0x0 DSCP Default ECN Not-ECT ttl 63 id 5 protocol 6 offset (bytes) 0 flags [none] length: 588 10.1.3.1 > 10.1.2.2) ns3::TcpHeader (49153 > 4000 [ACK] Seq=1609 Ack=1 Win=32768 ns3::TcpOptionTS(164;137) ns3::TcpOptionEnd(EOL)) Payload Fragment [1608:2048] Payload Fragment [0:96]
- 0.179988 /NodeList/1/DeviceList/1/$ns3::PointToPointNetDevice/TxQueue/Dequeue ns3::PppHeader (Point-to-Point Protocol: IP (0x0021)) ns3::Ipv4Header (tos 0x0 DSCP Default ECN Not-ECT ttl 63 id 5 protocol 6 offset (bytes) 0 flags [none] length: 588 10.1.3.1 > 10.1.2.2) ns3::TcpHeader (49153 > 4000 [ACK] Seq=1609 Ack=1 Win=32768 ns3::TcpOptionTS(164;137) ns3::TcpOptionEnd(EOL)) Payload Fragment [1608:2048] Payload Fragment [0:96]
- 0.195721 /NodeList/0/DeviceList/0/$ns3::PointToPointNetDevice/TxQueue/Dequeue ns3::PppHeader (Point-to-Point Protocol: IP (0x0021)) ns3::Ipv4Header (tos 0x0 DSCP Default ECN Not-ECT ttl 64 id 7 protocol 6 offset (bytes) 0 flags [none] length: 588 10.1.3.1 > 10.1.2.2) ns3::TcpHeader (49153 > 4000 [ACK] Seq=2681 Ack=1 Win=32768 ns3::TcpOptionTS(164;137) ns3::TcpOptionEnd(EOL)) Payload Fragment [632:1168]
r 0.195721 /NodeList/1/DeviceList/0/$ns3::PointToPointNetDevice/MacRx ns3::PppHeader (Point-to-Point Protocol: IP (0x0021)) ns3::Ipv4Header (tos 0x0 DSCP Default ECN Not-ECT ttl 64 id 6 protocol 6 offset (bytes) 0 flags [none] length: 588 10.1.3.1 > 10.1.2.2) ns3::TcpHeader (49153 > 4000 [ACK] Seq=2145 Ack=1 Win=32768 ns3::TcpOptionTS(164;137) ns3::TcpOptionEnd(EOL)) Payload Fragment [96:632]
+ 0.195721 /NodeList/1/DeviceList/1/$ns3::PointToPointNetDevice/TxQueue/Enqueue ns3::PppHeader (Point-to-Point Protocol: IP (0x0021)) ns3::Ipv4Header (tos 0x0 DSCP Default ECN Not-ECT ttl 63 id 6 protocol 6 offset (bytes) 0 flags [none] length: 588 10.1.3.1 > 10.1.2.2) ns3::TcpHeader (49153 > 4000 [ACK] Seq=2145 Ack=1 Win=32768 ns3::TcpOptionTS(164;137) ns3::TcpOptionEnd(EOL)) Payload Fragment [96:632]
- 0.195721 /NodeList/1/DeviceList/1/$ns3::PointToPointNetDevice/TxQueue/Dequeue ns3::PppHeader (Point-to-Point Protocol: IP (0x0021)) ns3::Ipv4Header (tos 0x0 DSCP Default ECN Not-ECT ttl 63 id 6 protocol 6 offset (bytes) 0 flags [none] length: 588 10.1.3.1 > 10.1.2.2) ns3::TcpHeader (49153 > 4000 [ACK] Seq=2145 Ack=1 Win=32768 ns3::TcpOptionTS(164;137) ns3::TcpOptionEnd(EOL)) Payload Fragment [96:632]
r 0.195721 /NodeList/2/DeviceList/0/$ns3::PointToPointNetDevice/MacRx ns3::PppHeader (Point-to-Point Protocol: IP (0x0021)) ns3::Ipv4Header (tos 0x0 DSCP Default ECN Not-ECT ttl 63 id 5 protocol 6 offset (bytes) 0 flags [none] length: 588 10.1.3.1 > 10.1.2.2) ns3::TcpHeader (49153 > 4000 [ACK] Seq=1609 Ack=1 Win=32768 ns3::TcpOptionTS(164;137) ns3::TcpOptionEnd(EOL)) Payload Fragment [1608:2048] Payload Fragment [0:96]
r 0.211455 /NodeList/1/DeviceList/0/$ns3::PointToPointNetDevice/MacRx ns3::PppHeader (Point-to-Point Protocol: IP (0x0021)) ns3::Ipv4Header (tos 0x0 DSCP Default ECN Not-ECT ttl 64 id 7 protocol 6 offset (bytes) 0 flags [none] length: 588 10.1.3.1 > 10.1.2.2) ns3::TcpHeader (49153 > 4000 [ACK] Seq=2681 Ack=1 Win=32768 ns3::TcpOptionTS(164;137) ns3::TcpOptionEnd(EOL)) Payload Fragment [632:1168]
+ 0.211455 /NodeList/1/DeviceList/1/$ns3::PointToPointNetDevice/TxQueue/Enqueue ns3::PppHeader (Point-to-Point Protocol: IP (0x0021)) ns3::Ipv4Header (tos 0x0 DSCP Default ECN Not-ECT ttl 63 id 7 protocol 6 offset (bytes) 0 flags [none] length: 588 10.1.3.1 > 10.1.2.2) ns3::TcpHeader (49153 > 4000 [ACK] Seq=2681 Ack=1 Win=32768 ns3::TcpOptionTS(164;137) ns3::TcpOptionEnd(EOL)) Payload Fragment [632:1168]
- 0.211455 /NodeList/1/DeviceList/1/$ns3::PointToPointNetDevice/TxQueue/Dequeue ns3::PppHeader (Point-to-Point Protocol: IP (0x0021)) ns3::Ipv4Header (tos 0x0 DSCP Default ECN Not-ECT ttl 63 id 7 protocol 6 offset (bytes) 0 flags [none] length: 588 10.1.3.1 > 10.1.2.2) ns3::TcpHeader (49153 > 4000 [ACK] Seq=2681 Ack=1 Win=32768 ns3::TcpOptionTS(164;137) ns3::TcpOptionEnd(EOL)) Payload Fragment [632:1168]
r 0.211455 /NodeList/2/DeviceList/0/$ns3::PointToPointNetDevice/MacRx ns3::PppHeader (Point-to-Point Protocol: IP (0x0021)) ns3::Ipv4Header (tos 0x0 DSCP Default ECN Not-ECT ttl 63 id 6 protocol 6 offset (bytes) 0 flags [none] length: 588 10.1.3.1 > 10.1.2.2) ns3::TcpHeader (49153 > 4000 [ACK] Seq=2145 Ack=1 Win=32768 ns3::TcpOptionTS(164;137) ns3::TcpOptionEnd(EOL)) Payload Fragment [96:632]
+ 0.211455 /NodeList/2/DeviceList/0/$ns3::PointToPointNetDevice/TxQueue/Enqueue ns3::PppHeader (Point-to-Point Protocol: IP (0x0021)) ns3::Ipv4Header (tos 0x0 DSCP Default ECN Not-ECT ttl 64 id 3 protocol 6 offset (bytes) 0 flags [none] length: 52 10.1.2.2 > 10.1.3.1) ns3::TcpHeader (4000 > 49153 [ACK] Seq=1 Ack=2681 Win=32768 ns3::TcpOptionTS(211;164) ns3::TcpOptionEnd(EOL))
- 0.211455 /NodeList/2/DeviceList/0/$ns3::PointToPointNetDevice/TxQueue/Dequeue ns3::PppHeader (Point-to-Point Protocol: IP (0x0021)) ns3::Ipv4Header (tos 0x0 DSCP Default ECN Not-ECT ttl 64 id 3 protocol 6 offset (bytes) 0 flags [none] length: 52 10.1.2.2 > 10.1.3.1) ns3::TcpHeader (4000 > 49153 [ACK] Seq=1 Ack=2681 Win=32768 ns3::TcpOptionTS(211;164) ns3::TcpOptionEnd(EOL))
r 0.224638 /NodeList/1/DeviceList/1/$ns3::PointToPointNetDevice/MacRx ns3::PppHeader (Point-to-Point Protocol: IP (0x0021)) ns3::Ipv4Header (tos 0x0 DSCP Default ECN Not-ECT ttl 64 id 3 protocol 6 offset (bytes) 0 flags [none] length: 52 10.1.2.2 > 10.1.3.1) ns3::TcpHeader (4000 > 49153 [ACK] Seq=1 Ack=2681 Win=32768 ns3::TcpOptionTS(211;164) ns3::TcpOptionEnd(EOL))
+ 0.224638 /NodeList/1/DeviceList/0/$ns3::PointToPointNetDevice/TxQueue/Enqueue ns3::PppHeader (Point-to-Point Protocol: IP (0x0021)) ns3::Ipv4Header (tos 0x0 DSCP Default ECN Not-ECT ttl 63 id 3 protocol 6 offset (bytes) 0 flags [none] length: 52 10.1.2.2 > 10.1.3.1) ns3::TcpHeader (4000 > 49153 [ACK] Seq=1 Ack=2681 Win=32768 ns3::TcpOptionTS(211;164) ns3::TcpOptionEnd(EOL))
- 0.224638 /NodeList/1/DeviceList/0/$ns3::PointToPointNetDevice/TxQueue/Dequeue ns3::PppHeader (Point-to-Point Protocol: IP (0x0021)) ns3::Ipv4Header (tos 0x0 DSCP Default ECN Not-ECT ttl 63 id 3 protocol 6 offset (bytes) 0 flags [none] length: 52 10.1.2.2 > 10.1.3.1) ns3::TcpHeader (4000 > 49153 [ACK] Seq=1 Ack=2681 Win=32768 ns3::TcpOptionTS(211;164) ns3::TcpOptionEnd(EOL))
r 0.227188 /NodeList/2/DeviceList/0/$ns3::PointToPointNetDevice/MacRx ns3::PppHeader (Point-to-Point Protocol: IP (0x0021)) ns3::Ipv4Header (tos 0x0 DSCP Default ECN Not-ECT ttl 63 id 7 protocol 6 offset (bytes) 0 flags [none] length: 588 10.1.3.1 > 10.1.2.2) ns3::TcpHeader (49153 > 4000 [ACK] Seq=2681 Ack=1 Win=32768 ns3::TcpOptionTS(164;137) ns3::TcpOptionEnd(EOL)) Payload Fragment [632:1168]
r 0.237822 /NodeList/0/DeviceList/0/$ns3::PointToPointNetDevice/MacRx ns3::PppHeader (Point-to-Point Protocol: IP (0x0021)) ns3::Ipv4Header (tos 0x0 DSCP Default ECN Not-ECT ttl 63 id 3 protocol 6 offset (bytes) 0 flags [none] length: 52 10.1.2.2 > 10.1.3.1) ns3::TcpHeader (4000 > 49153 [ACK] Seq=1 Ack=2681 Win=32768 ns3::TcpOptionTS(211;164) ns3::TcpOptionEnd(EOL))
+ 0.237822 /NodeList/0/DeviceList/0/$ns3::PointToPointNetDevice/TxQueue/Enqueue ns3::PppHeader (Point-to-Point Protocol: IP (0x0021)) ns3::Ipv4Header (tos 0x0 DSCP Default ECN Not-ECT ttl 64 id 8 protocol 6 offset (bytes) 0 flags [none] length: 588 10.1.3.1 > 10.1.2.2) ns3::TcpHeader (49153 > 4000 [ACK] Seq=3217 Ack=1 Win=32768 ns3::TcpOptionTS(237;211) ns3::TcpOptionEnd(EOL)) Payload Fragment [1168:1704]
- 0.237822 /NodeList/0/DeviceList/0/$ns3::PointToPointNetDevice/TxQueue/Dequeue ns3::PppHeader (Point-to-Point Protocol: IP (0x0021)) ns3::Ipv4Header (tos 0x0 DSCP Default ECN Not-ECT ttl 64 id 8 protocol 6 offset (bytes) 0 flags [none] length: 588 10.1.3.1 > 10.1.2.2) ns3::TcpHeader (49153 > 4000 [ACK] Seq=3217 Ack=1 Win=32768 ns3::TcpOptionTS(237;211) ns3::TcpOptionEnd(EOL)) Payload Fragment [1168:1704]
+ 0.237822 /NodeList/0/DeviceList/0/$ns3::PointToPointNetDevice/TxQueue/Enqueue ns3::PppHeader (Point-to-Point Protocol: IP (0x0021)) ns3::Ipv4Header (tos 0x0 DSCP Default ECN Not-ECT ttl 64 id 9 protocol 6 offset (bytes) 0 flags [none] length: 588 10.1.3.1 > 10.1.2.2) ns3::TcpHeader (49153 > 4000 [ACK] Seq=3753 Ack=1 Win=32768 ns3::TcpOptionTS(237;211) ns3::TcpOptionEnd(EOL)) Payload Fragment [1704:2048] Payload Fragment [0:192]